#-----------------------------------------------------------------------------------
# HYDROPOLY - STRUCTURAL DATA FILE                                                  
#-----------------------------------------------------------------------------------
# FILENAME:  test_structure                                                        
# DATE: 2024-01-29                                                                     
#-----------------------------------------------------------------------------------
                                                                                    
10000 atoms                                                             
9995 bonds                                              
9990 angles                                           
9985 dihedrals                                        
                                                                                    
1 atom types                                                                        
1 bond types                                                                        
1 angle types                                                                       
1 dihedral types                                                                    
                                                                                    
0.0000 100 xlo xhi                                                             
0.0000 100 ylo yhi                                                             
0.0000 100 zlo zhi                                                             
                                                                                    
                                                                                    
Masses                                                                              
                                                                                    
1 1.0                                                                               
                                                                                    
Atoms                                                                               
                                                                                    
	1	1	 1 	29.33678		26.53830		99.15643	
	2	1	 1 	30.51650		27.48874		99.37046	
	3	1	 1 	30.15052		28.50490		0.45415	
	4	1	 1 	30.28681		27.84359		1.82711	
	5	1	 1 	28.89490		27.48047		2.34829	
	6	1	 1 	29.01550		26.30670		3.32227	
	7	1	 1 	28.90061		24.99531		2.54256	
	8	1	 1 	28.66522		23.84712		3.52599	
	9	1	 1 	29.91539		22.96650		3.57596	
	10	1	 1 	29.77518		21.83943		2.55080	
	11	1	 1 	28.31554		21.38307		2.50499	
	12	1	 1 	28.24056		20.01226		1.82959	
	13	1	 1 	26.77472		19.58787		1.71956	
	14	1	 1 	26.51902		19.02945		0.31825	
	15	1	 1 	25.83057		17.66849		0.43958	
	16	1	 1 	24.76231		17.74348		1.53233	
	17	1	 1 	24.78224		16.44535		2.34187	
	18	1	 1 	26.13217		15.75282		2.14434	
	19	1	 1 	25.95266		14.56827		1.19276	
	20	1	 1 	27.29701		14.24359		0.53837	
	21	1	 1 	27.25389		12.81703		99.98704	
	22	1	 1 	26.27318		11.98820		0.81900	
	23	1	 1 	27.04867		10.91262		1.58232	
	24	1	 1 	27.12188		11.30202		3.06013	
	25	1	 1 	26.98733		10.04177		3.91719	
	26	1	 1 	28.31187		9.27631		3.89331	
	27	1	 1 	28.23097		8.10503		4.87436	
	28	1	 1 	29.16847		6.99154		4.40305	
	29	1	 1 	28.36483		5.96706		3.59962	
	30	1	 1 	27.18860		6.67322		2.92232	
	31	1	 1 	27.72375		7.60298		1.83142	
	32	1	 1 	28.04902		6.77728		0.58510	
	33	1	 1 	27.03874		7.11113		99.48565	
	34	1	 1 	27.65927		6.79610		98.12308	
	35	1	 1 	26.92225		5.60904		97.49972	
	36	1	 1 	27.88796		4.42869		97.37686	
	37	1	 1 	29.08811		4.85016		96.52662	
	38	1	 1 	28.66695		4.90132		95.05661	
	39	1	 1 	28.70821		6.35270		94.57423	
	40	1	 1 	27.67476		7.16877		95.35329	
	41	1	 1 	28.34430		7.77755		96.58698	
	42	1	 1 	28.63690		9.25536		96.31984	
	43	1	 1 	27.45591		10.09598		96.80925	
	44	1	 1 	26.22135		9.76158		95.96963	
	45	1	 1 	25.44637		11.04948		95.68391	
	46	1	 1 	25.01521		11.05912		94.21595	
	47	1	 1 	23.50240		11.27476		94.13990	
	48	1	 1 	22.79135		9.98842		94.56494	
	49	1	 1 	23.30212		8.82774		93.70888	
	50	1	 1 	24.83037		8.87880		93.65671	
	51	1	 1 	25.39557		7.60124		94.28064	
	52	1	 1 	25.38504		6.48566		93.23361	
	53	1	 1 	25.07502		5.15525		93.92267	
	54	1	 1 	26.33519		4.28757		93.92598	
	55	1	 1 	25.92792		2.81315		93.89236	
	56	1	 1 	27.08699		1.96157		94.41415	
	57	1	 1 	27.04002		0.58721		93.74346	
	58	1	 1 	25.97288		99.73171		94.42919	
	59	1	 1 	24.95828		0.65020		95.11319	
	60	1	 1 	23.72950		0.79683		94.21346	
	61	1	 1 	22.71058		1.70710		94.90202	
	62	1	 1 	21.57318		2.01390		93.92576	
	63	1	 1 	21.28552		3.51644		93.94847	
	64	1	 1 	21.72515		4.13051		92.61785	
	65	1	 1 	20.52807		4.82779		91.96847	
	66	1	 1 	20.44467		6.26517		92.48605	
	67	1	 1 	19.83482		6.25742		93.88923	
	68	1	 1 	18.47779		5.55237		93.84144	
	69	1	 1 	17.68534		6.07260		92.64048	
	70	1	 1 	16.44260		6.81056		93.14236	
	71	1	 1 	16.12117		7.95905		92.18395	
	72	1	 1 	16.45048		7.52506		90.75423	
	73	1	 1 	17.60974		6.52714		90.78840	
	74	1	 1 	17.16117		5.26370		91.52556	
	75	1	 1 	15.94102		4.67553		90.81409	
	76	1	 1 	15.20457		3.73937		91.77438	
	77	1	 1 	14.29260		4.56846		92.68091	
	78	1	 1 	15.10180		5.07530		93.87640	
	79	1	 1 	14.52983		6.41824		94.33494	
	80	1	 1 	15.17556		7.54150		93.52116	
	81	1	 1 	14.18368		8.69910		93.39068	
	82	1	 1 	14.80304		9.79322		92.51879	
	83	1	 1 	16.21632		10.09411		93.02179	
	84	1	 1 	16.42905		9.39421		94.36559	
	85	1	 1 	15.78780		10.23213		95.47354	
	86	1	 1 	14.52236		9.52697		95.96580	
	87	1	 1 	14.28072		8.27946		95.11360	
	88	1	 1 	13.33560		8.63395		93.96383	
	89	1	 1 	12.58065		7.37578		93.53029	
	90	1	 1 	12.97588		7.02454		92.09456	
	91	1	 1 	13.46828		8.28876		91.38731	
	92	1	 1 	12.65348		9.48690		91.87870	
	93	1	 1 	11.17057		9.23117		91.60217	
	94	1	 1 	10.73496		7.96377		92.34031	
	95	1	 1 	11.92049		7.41625		93.13758	
	96	1	 1 	12.69821		6.42962		92.26431	
	97	1	 1 	13.74729		5.72028		93.12289	
	98	1	 1 	15.14097		6.04978		92.58437	
	99	1	 1 	15.10894		6.01077		91.05521	
	100	1	 1 	13.71622		5.57599		90.59455	
	101	1	 1 	13.61096		4.05247		90.68790	
	102	1	 1 	14.71141		3.42127		89.83263	
	103	1	 1 	14.35383		3.58744		88.35431	
	104	1	 1 	15.39958		4.48043		87.68359	
	105	1	 1 	14.69066		5.48201		86.76972	
	106	1	 1 	15.15368		6.89683		87.12296	
	107	1	 1 	14.54255		7.88642		86.12892	
	108	1	 1 	15.34626		9.18795		86.15992	
	109	1	 1 	14.50485		10.28027		86.82306	
	110	1	 1 	13.55645		10.88177		85.78400	
	111	1	 1 	13.15839		9.79638		84.78181	
	112	1	 1 	13.50335		8.42494		85.36579	
	113	1	 1 	14.48278		7.71414		84.42964	
	114	1	 1 	15.51968		6.96261		85.26686	
	115	1	 1 	15.05970		5.51520		85.45219	
	116	1	 1 	15.69922		4.94506		86.71981	
	117	1	 1 	16.79726		3.95544		86.32501	
	118	1	 1 	16.38815		2.54994		86.77008	
	119	1	 1 	17.64623		1.70391		86.97586	
	120	1	 1 	18.23973		2.01560		88.35118	
	121	1	 1 	18.43868		3.52716		88.47971	
	122	1	 1 	17.08896		4.22636		88.30574	
	123	1	 1 	15.97404		3.17928		88.34443	
	124	1	 1 	16.07833		2.29082		87.10320	
	125	1	 1 	14.68010		2.08164		86.51832	
	126	1	 1 	13.96636		3.43220		86.43195	
	127	1	 1 	14.78590		4.37604		85.54967	
	128	1	 1 	15.06544		3.69237		84.20977	
	129	1	 1 	16.21052		2.69319		84.38681	
	130	1	 1 	16.40359		1.91676		83.08267	
	131	1	 1 	15.71008		2.66877		81.94494	
	132	1	 1 	15.40889		1.68991		80.80827	
	133	1	 1 	16.66140		0.86118		80.51617	
	134	1	 1 	16.41794		99.41510		80.95262	
	135	1	 1 	17.74023		98.64715		80.90084	
	136	1	 1 	18.11698		98.39698		79.43921	
	137	1	 1 	18.84402		99.62698		78.89202	
	138	1	 1 	19.60938		0.30395		80.03081	
	139	1	 1 	19.87787		1.76277		79.65578	
	140	1	 1 	18.76290		2.64024		80.22833	
	141	1	 1 	19.38805		3.80011		81.00600	
	142	1	 1 	20.30109		3.23695		82.09693	
	143	1	 1 	20.93471		4.39693		82.86757	
	144	1	 1 	21.47162		5.42614		81.87091	
	145	1	 1 	22.99977		5.35371		81.85079	
	146	1	 1 	23.51484		6.00263		80.56451	
	147	1	 1 	22.38708		6.02940		79.53091	
	148	1	 1 	21.04691		5.85239		80.24751	
	149	1	 1 	21.22027		6.20180		81.72696	
	150	1	 1 	19.95100		6.89197		82.23044	
	151	1	 1 	19.15766		7.41697		81.03216	
	152	1	 1 	18.01942		6.44339		80.71996	
	153	1	 1 	17.17013		6.24637		81.97726	
	154	1	 1 	16.05891		7.29782		82.00064	
	155	1	 1 	16.09531		8.09383		80.69453	
	156	1	 1 	16.72801		9.46150		80.95923	
	157	1	 1 	16.35978		10.41264		79.81877	
	158	1	 1 	15.57659		9.63993		78.75556	
	159	1	 1 	14.99428		8.37279		79.38498	
	160	1	 1 	14.32258		8.73559		80.71090	
	161	1	 1 	13.87894		10.19909		80.66341	
	162	1	 1 	13.17961		10.55313		81.97737	
	163	1	 1 	14.20217		11.15753		82.94172	
	164	1	 1 	13.91075		12.65011		83.10957	
	165	1	 1 	15.21764		13.43385		82.97283	
	166	1	 1 	16.09357		12.76536		81.91133	
	167	1	 1 	15.73914		11.27903		81.83328	
	168	1	 1 	14.23448		11.13492		81.59637	
	169	1	 1 	13.87330		9.64858		81.56118	
	170	1	 1 	12.89347		9.39851		80.41301	
	171	1	 1 	11.58425		10.13536		80.70265	
	172	1	 1 	11.00741		10.66644		79.38883	
	173	1	 1 	11.69899		9.96447		78.21842	
	174	1	 1 	10.82679		10.09804		76.96849	
	175	1	 1 	10.66953		8.72200		76.31836	
	176	1	 1 	10.29751		7.69961		77.39410	
	177	1	 1 	11.55805		7.30322		78.16534	
	178	1	 1 	11.16028		6.82689		79.56384	
	179	1	 1 	10.01822		7.70171		80.08469	
	180	1	 1 	9.75054		8.82527		79.08127	
	181	1	 1 	8.73402		9.79952		79.67997	
	182	1	 1 	9.45279		11.08927		80.08099	
	183	1	 1 	9.46323		11.20295		81.60672	
	184	1	 1 	8.03754		11.45894		82.09945	
	185	1	 1 	7.53470		10.21984		82.84287	
	186	1	 1 	8.65735		9.18207		82.90284	
	187	1	 1 	9.97282		9.84294		82.48608	
	188	1	 1 	10.66815		8.96211		81.44611	
	189	1	 1 	10.10078		7.54377		81.53152	
	190	1	 1 	8.61540		7.61951		81.89042	
	191	1	 1 	7.78697		7.57815		80.60477	
	192	1	 1 	7.66296		8.99598		80.04327	
	193	1	 1 	7.03408		9.90140		81.10423	
	194	1	 1 	7.40479		9.37742		82.49309	
	195	1	 1 	6.48652		10.02250		83.53307	
	196	1	 1 	6.88027		9.52555		84.92552	
	197	1	 1 	8.22729		8.80532		84.83767	
	198	1	 1 	9.35053		9.81061		85.09960	
	199	1	 1 	10.68501		9.06494		85.16321	
	200	1	 1 	10.49997		7.77496		85.96485	
	201	1	 1 	11.34963		6.66867		85.33627	
	202	1	 1 	12.81494		7.10869		85.32393	
	203	1	 1 	13.69070		5.92172		84.91766	
	204	1	 1 	13.41390		5.57320		83.45382	
	205	1	 1 	12.30455		6.48371		82.92354	
	206	1	 1 	11.88345		6.00242		81.53360	
	207	1	 1 	11.85304		7.19697		80.57808	
	208	1	 1 	13.20153		7.91759		80.63441	
	209	1	 1 	13.21778		8.85568		81.84297	
	210	1	 1 	13.23556		10.30461		81.35186	
	211	1	 1 	14.68460		10.78987		81.27629	
	212	1	 1 	15.53164		9.72911		80.57046	
	213	1	 1 	14.60791		8.66000		79.98341	
	214	1	 1 	13.91482		9.22428		78.74158	
	215	1	 1 	14.17551		8.29289		77.55606	
	216	1	 1 	14.92157		7.05150		78.04927	
	217	1	 1 	13.97271		6.20046		78.89561	
	218	1	 1 	14.10757		4.73475		78.47801	
	219	1	 1 	13.67158		3.84079		79.64062	
	220	1	 1 	12.34888		3.16115		79.28085	
	221	1	 1 	11.83192		2.39483		80.50003	
	222	1	 1 	12.87577		2.46703		81.61631	
	223	1	 1 	14.26847		2.27527		81.01256	
	224	1	 1 	14.96104		1.10467		81.71324	
	225	1	 1 	15.35104		1.52934		83.13044	
	226	1	 1 	16.26768		0.46532		83.73752	
	227	1	 1 	17.52835		0.34188		82.87940	
	228	1	 1 	17.12319		0.22032		81.40904	
	229	1	 1 	15.81638		99.43038		81.31348	
	230	1	 1 	15.90473		98.20436		82.22451	
	231	1	 1 	16.32721		96.99182		81.39255	
	232	1	 1 	15.99601		95.71397		82.16606	
	233	1	 1 	14.49583		95.43524		82.05350	
	234	1	 1 	14.28891		94.04314		81.45337	
	235	1	 1 	15.49574		93.16660		81.79419	
	236	1	 1 	15.25747		92.49017		83.14570	
	237	1	 1 	14.58253		91.13645		82.91594	
	238	1	 1 	15.53159		90.02191		83.36089	
	239	1	 1 	16.74038		89.98973		82.42349	
	240	1	 1 	16.26588		90.21641		80.98670	
	241	1	 1 	14.92701		89.50437		80.78340	
	242	1	 1 	15.18056		88.00873		80.58421	
	243	1	 1 	14.34991		87.22062		81.59900	
	244	1	 1 	12.88166		87.24288		81.16929	
	245	1	 1 	12.53416		85.90913		80.50502	
	246	1	 1 	13.07694		85.90585		79.07453	
	247	1	 1 	13.80144		84.58310		78.81700	
	248	1	 1 	13.04702		83.80042		77.74035	
	249	1	 1 	14.05486		83.04411		76.87250	
	250	1	 1 	15.26873		83.94020		76.61864	
	251	1	 1 	16.27661		83.75140		77.75417	
	252	1	 1 	17.44313		84.72109		77.55457	
	253	1	 1 	18.61433		84.28363		78.43652	
	254	1	 1 	18.21178		84.41840		79.90645	
	255	1	 1 	18.12849		83.02484		80.53251	
	256	1	 1 	19.51016		82.62790		81.05626	
	257	1	 1 	20.53926		82.80471		79.93796	
	258	1	 1 	20.40328		81.64860		78.94508	
	259	1	 1 	21.60291		80.71173		79.10020	
	260	1	 1 	21.73932		80.31228		80.57082	
	261	1	 1 	22.45019		81.43413		81.33045	
	262	1	 1 	23.94613		81.38366		81.01343	
	263	1	 1 	24.35846		82.69141		80.33470	
	264	1	 1 	23.20008		83.68719		80.42108	
	265	1	 1 	22.56864		83.60123		81.81205	
	266	1	 1 	22.28011		85.01561		82.31916	
	267	1	 1 	22.15002		84.98418		83.84330	
	268	1	 1 	22.16746		86.41800		84.37693	
	269	1	 1 	22.59858		87.36458		83.25487	
	270	1	 1 	23.73978		88.25069		83.75822	
	271	1	 1 	24.57975		88.71107		82.56516	
	272	1	 1 	24.97906		87.49063		81.73332	
	273	1	 1 	26.16710		86.79602		82.40189	
	274	1	 1 	25.77424		86.38986		83.82372	
	275	1	 1 	24.36048		86.89629		84.11648	
	276	1	 1 	23.36871		86.16397		83.21039	
	277	1	 1 	23.44286		86.75914		81.80285	
	278	1	 1 	23.44468		85.62285		80.77827	
	279	1	 1 	24.28969		84.46591		81.31525	
	280	1	 1 	24.10558		84.37301		82.83129	
	281	1	 1 	23.41657		85.64449		83.33078	
	282	1	 1 	21.90097		85.47262		83.21116	
	283	1	 1 	21.25852		86.84187		82.98025	
	284	1	 1 	19.94252		86.65600		82.22229	
	285	1	 1 	19.07218		85.64454		82.97086	
	286	1	 1 	19.44045		85.66924		84.45568	
	287	1	 1 	19.91491		87.07469		84.83050	
	288	1	 1 	19.65592		88.02037		83.65597	
	289	1	 1 	20.10161		89.43213		84.04221	
	290	1	 1 	20.89022		89.36747		85.35172	
	291	1	 1 	22.37395		89.17210		85.03349	
	292	1	 1 	22.55375		87.85733		84.27194	
	293	1	 1 	23.56494		88.06691		83.14302	
	294	1	 1 	22.81405		88.19985		81.81660	
	295	1	 1 	21.35861		87.77435		82.02040	
	296	1	 1 	21.18511		86.33434		81.53342	
	297	1	 1 	22.32935		85.47921		82.08148	
	298	1	 1 	23.61567		85.82103		81.32687	
	299	1	 1 	23.88363		84.73930		80.27855	
	300	1	 1 	23.75209		85.35149		78.88255	
	301	1	 1 	25.01298		86.15958		78.56941	
	302	1	 1 	25.86663		85.38549		77.56296	
	303	1	 1 	26.30764		84.06290		78.19318	
	304	1	 1 	25.10572		83.11924		78.26928	
	305	1	 1 	23.86362		83.84786		77.75235	
	306	1	 1 	23.77936		83.67836		76.23410	
	307	1	 1 	23.06284		84.88976		75.63410	
	308	1	 1 	23.89476		85.43936		74.47361	
	309	1	 1 	25.18208		84.62189		74.34925	
	310	1	 1 	26.20230		85.13670		75.36661	
	311	1	 1 	27.27540		85.94493		74.63441	
	312	1	 1 	27.18437		87.40862		75.07054	
	313	1	 1 	27.86252		88.28778		74.01787	
	314	1	 1 	28.09653		87.46199		72.75129	
	315	1	 1 	27.98208		85.97541		73.09461	
	316	1	 1 	28.92633		85.17897		72.19184	
	317	1	 1 	30.03092		84.55629		73.04803	
	318	1	 1 	30.56677		85.61092		74.01834	
	319	1	 1 	29.42796		86.08133		74.92538	
	320	1	 1 	29.94689		86.20016		76.35978	
	321	1	 1 	31.18324		87.10138		76.37185	
	322	1	 1 	31.17146		87.95045		77.64458	
	323	1	 1 	30.27579		89.17108		77.42381	
	324	1	 1 	30.65387		89.83642		76.09894	
	325	1	 1 	29.37690		90.19011		75.33400	
	326	1	 1 	29.67556		90.18875		73.83343	
	327	1	 1 	30.49205		88.94217		73.48661	
	328	1	 1 	29.57719		87.91479		72.81697	
	329	1	 1 	28.42140		88.64569		72.13078	
	330	1	 1 	27.58222		87.63288		71.34919	
	331	1	 1 	27.76521		86.24628		71.96947	
	332	1	 1 	26.52971		85.90443		72.80468	
	333	1	 1 	25.28224		86.02970		71.92773	
	334	1	 1 	25.70996		86.16139		70.46465	
	335	1	 1 	25.28187		84.90544		69.70292	
	336	1	 1 	26.49455		84.32530		68.97235	
	337	1	 1 	27.68663		85.26686		69.15493	
	338	1	 1 	27.17044		86.67826		69.44196	
	339	1	 1 	25.72175		86.78867		68.96237	
	340	1	 1 	25.17181		88.16470		69.34320	
	341	1	 1 	24.31544		88.69751		68.19270	
	342	1	 1 	23.88789		90.13200		68.50950	
	343	1	 1 	24.66105		91.09571		67.60708	
	344	1	 1 	25.50671		92.02730		68.47766	
	345	1	 1 	26.92101		91.45563		68.59542	
	346	1	 1 	26.90218		90.26771		69.55946	
	347	1	 1 	27.16935		88.98177		68.77468	
	348	1	 1 	27.53862		87.86541		69.75359	
	349	1	 1 	27.72434		88.46444		71.14915	
	350	1	 1 	26.35266		88.64906		71.80132	
	351	1	 1 	26.53058		89.34143		73.15404	
	352	1	 1 	27.78313		90.21880		73.10649	
	353	1	 1 	27.64602		91.22558		71.96259	
	354	1	 1 	27.40112		92.61789		72.54774	
	355	1	 1 	28.27280		93.63315		71.80590	
	356	1	 1 	28.78357		93.00165		70.50928	
	357	1	 1 	27.68997		93.09311		69.44317	
	358	1	 1 	27.53070		94.55282		69.01331	
	359	1	 1 	27.76552		94.65907		67.50518	
	360	1	 1 	26.90973		95.79651		66.94415	
	361	1	 1 	27.78628		96.70105		66.07561	
	362	1	 1 	29.07332		95.95578		65.71644	
	363	1	 1 	28.71878		94.54671		65.23715	
	364	1	 1 	29.00353		93.54898		66.36160	
	365	1	 1 	29.14039		94.30893		67.68245	
	366	1	 1 	28.59701		95.72780		67.50233	
	367	1	 1 	28.58878		96.43662		68.85821	
	368	1	 1 	27.29801		96.08349		69.59992	
	369	1	 1 	26.83838		94.68925		69.16896	
	370	1	 1 	25.33376		94.72110		68.89325	
	371	1	 1 	24.98574		93.62210		67.88729	
	372	1	 1 	25.52992		94.01208		66.51154	
	373	1	 1 	25.52505		95.53683		66.38505	
	374	1	 1 	24.39109		96.10648		67.23977	
	375	1	 1 	24.39712		97.63231		67.12701	
	376	1	 1 	25.61060		98.06869		66.30365	
	377	1	 1 	25.36537		97.72931		64.83205	
	378	1	 1 	25.92223		98.85562		63.95900	
	379	1	 1 	27.01794		99.59282		64.73156	
	380	1	 1 	28.17655		99.90471		63.78221	
	381	1	 1 	27.95538		1.28426		63.15866	
	382	1	 1 	29.20168		2.14211		63.38612	
	383	1	 1 	29.95930		2.28475		62.06454	
	384	1	 1 	31.23813		1.44718		62.12766	
	385	1	 1 	32.00336		1.79731		63.40545	
	386	1	 1 	31.00241		2.14640		64.50869	
	387	1	 1 	29.58287		2.04637		63.94673	
	388	1	 1 	29.65030		1.54620		62.50237	
	389	1	 1 	28.30823		0.91386		62.12835	
	390	1	 1 	28.55299		99.50524		61.58359	
	391	1	 1 	28.24031		98.48359		62.67874	
	392	1	 1 	26.83845		98.75303		63.22928	
	393	1	 1 	26.29942		0.04649		62.61502	
	394	1	 1 	24.86266		99.81552		62.14248	
	395	1	 1 	23.90647		0.05187		63.31326	
	396	1	 1 	23.09830		98.77730		63.56476	
	397	1	 1 	23.87678		97.87138		64.52089	
	398	1	 1 	24.59524		96.78953		63.71201	
	399	1	 1 	24.30254		96.99896		62.22494	
	400	1	 1 	23.29241		95.94779		61.76063	
	401	1	 1 	23.80183		95.29868		60.47220	
	402	1	 1 	25.13066		94.59589		60.75715	
	403	1	 1 	24.85181		93.25622		61.44156	
	404	1	 1 	25.85716		93.05540		62.57727	
	405	1	 1 	27.11458		92.38505		62.02010	
	406	1	 1 	26.78956		91.76253		60.66079	
	407	1	 1 	27.34136		92.66238		59.55324	
	408	1	 1 	27.86138		91.78810		58.41039	
	409	1	 1 	27.91537		92.62060		57.12784	
	410	1	 1 	28.29257		91.71154		55.95642	
	411	1	 1 	29.63069		91.03422		56.25902	
	412	1	 1 	29.58058		90.43236		57.66478	
	413	1	 1 	30.74834		89.45846		57.83434	
	414	1	 1 	31.97171		90.22662		58.33851	
	415	1	 1 	33.22622		89.38501		58.09601	
	416	1	 1 	32.92526		88.33494		57.02472	
	417	1	 1 	33.30109		86.95175		57.55992	
	418	1	 1 	32.78463		86.81229		58.99335	
	419	1	 1 	32.77345		85.33191		59.37967	
	420	1	 1 	33.93417		84.62288		58.67901	
	421	1	 1 	33.80140		83.11375		58.89299	
	422	1	 1 	33.28727		82.85234		60.31012	
	423	1	 1 	33.44835		81.36591		60.63489	
	424	1	 1 	33.24376		80.54929		59.35733	
	425	1	 1 	34.60954		80.18902		58.76933	
	426	1	 1 	35.04793		81.29499		57.80728	
	427	1	 1 	34.01705		82.42508		57.84048	
	428	1	 1 	33.14678		82.34592		56.58459	
	429	1	 1 	32.77890		83.76302		56.14028	
	430	1	 1 	32.56995		84.63745		57.37827	
	431	1	 1 	31.59894		85.76864		57.03411	
	432	1	 1 	32.07503		87.05861		57.70509	
	433	1	 1 	33.28442		86.74643		58.58873	
	434	1	 1 	32.81709		86.57868		60.03592	
	435	1	 1 	32.61597		85.09029		60.32773	
	436	1	 1 	31.96800		84.42483		59.11192	
	437	1	 1 	31.31602		83.11130		59.54832	
	438	1	 1 	32.17268		81.94103		59.06096	
	439	1	 1 	32.27725		80.89866		60.17605	
	440	1	 1 	33.34152		79.86643		59.79825	
	441	1	 1 	34.14030		79.49057		61.04788	
	442	1	 1 	33.30406		78.54315		61.91043	
	443	1	 1 	34.11130		77.27296		62.18591	
	444	1	 1 	33.48686		76.52953		63.36841	
	445	1	 1 	34.49471		76.48213		64.51858	
	446	1	 1 	34.62839		77.88043		65.12504	
	447	1	 1 	35.63666		77.83316		66.27484	
	448	1	 1 	36.64571		76.71393		66.01016	
	449	1	 1 	37.99257		77.09819		66.62597	
	450	1	 1 	38.83621		75.83551		66.81258	
	451	1	 1 	40.25809		76.23754		67.20945	
	452	1	 1 	40.20191		77.52049		68.04118	
	453	1	 1 	41.03026		77.32916		69.31324	
	454	1	 1 	41.90279		78.56655		69.53334	
	455	1	 1 	41.00530		79.75769		69.87480	
	456	1	 1 	39.55804		79.27600		69.99445	
	457	1	 1 	39.55317		77.77937		70.31225	
	458	1	 1 	39.89021		77.58055		71.79136	
	459	1	 1 	39.09600		76.38892		72.33002	
	460	1	 1 	38.45021		76.77830		73.66127	
	461	1	 1 	38.30593		75.52866		74.53218	
	462	1	 1 	39.65814		74.81769		74.61556	
	463	1	 1 	40.48966		75.17718		73.38258	
	464	1	 1 	41.87724		74.54594		73.51306	
	465	1	 1 	41.82395		73.43182		74.56035	
	466	1	 1 	40.75582		72.41420		74.15484	
	467	1	 1 	39.52854		72.59263		75.05086	
	468	1	 1 	39.98427		73.04283		76.44030	
	469	1	 1 	39.23590		72.23161		77.49990	
	470	1	 1 	40.16552		71.14790		78.04969	
	471	1	 1 	40.05750		69.90156		77.16885	
	472	1	 1 	39.21822		68.84745		77.89367	
	473	1	 1 	40.00652		68.31806		79.09335	
	474	1	 1 	40.68792		67.00453		78.70447	
	475	1	 1 	39.84420		66.29848		77.64120	
	476	1	 1 	40.58620		66.34089		76.30384	
	477	1	 1 	39.59165		66.07933		75.17099	
	478	1	 1 	38.92287		64.72166		75.39543	
	479	1	 1 	39.98097		63.70966		75.83946	
	480	1	 1 	39.63755		62.33765		75.25589	
	481	1	 1 	39.44257		61.34130		76.40052	
	482	1	 1 	39.48088		62.09440		77.73178	
	483	1	 1 	38.12925		62.77336		77.96197	
	484	1	 1 	38.23375		63.69776		79.17666	
	485	1	 1 	37.32410		64.90937		78.96347	
	486	1	 1 	36.24833		64.55303		77.93553	
	487	1	 1 	36.57258		63.18855		77.32402	
	488	1	 1 	38.08371		63.08259		77.10913	
	489	1	 1 	38.35878		62.75638		75.63983	
	490	1	 1 	38.35050		64.05377		74.82891	
	491	1	 1 	39.69226		64.20272		74.10892	
	492	1	 1 	40.77353		63.47395		74.90932	
	493	1	 1 	41.49885		64.48134		75.80374	
	494	1	 1 	42.95331		64.03971		75.97809	
	495	1	 1 	43.51972		63.63304		74.61622	
	496	1	 1 	43.67852		62.11188		74.57405	
	497	1	 1 	44.13462		61.69475		73.17445	
	498	1	 1 	44.71679		62.91247		72.45395	
	499	1	 1 	44.69229		62.66043		70.94505	
	500	1	 1 	43.56961		63.48890		70.31725	
	501	1	 1 	42.31791		63.37877		71.19018	
	502	1	 1 	41.11767		63.03996		70.30388	
	503	1	 1 	40.16144		62.13315		71.08121	
	504	1	 1 	38.77093		62.77112		71.10033	
	505	1	 1 	38.85421		64.17159		70.48986	
	506	1	 1 	39.56668		65.10409		71.47156	
	507	1	 1 	40.41093		66.10869		70.68484	
	508	1	 1 	41.39903		66.78607		71.63653	
	509	1	 1 	41.22140		66.20384		73.04022	
	510	1	 1 	41.82113		67.17094		74.06294	
	511	1	 1 	43.29300		67.41143		73.72138	
	512	1	 1 	43.66313		66.58230		72.48994	
	513	1	 1 	42.38449		66.03667		71.85098	
	514	1	 1 	41.19192		66.86717		72.32947	
	515	1	 1 	39.98300		65.94759		72.51331	
	516	1	 1 	40.28501		64.59006		71.87551	
	517	1	 1 	39.01262		64.05148		71.21837	
	518	1	 1 	38.66397		62.69676		71.83812	
	519	1	 1 	38.73606		61.61768		70.75586	
	520	1	 1 	40.00776		61.82121		69.92987	
	521	1	 1 	40.11751		63.29522		69.53469	
	522	1	 1 	39.03502		63.61888		68.50301	
	523	1	 1 	38.97003		62.48840		67.47408	
	524	1	 1 	40.32495		61.77957		67.42284	
	525	1	 1 	40.28324		60.69733		66.34214	
	526	1	 1 	39.92112		59.35848		66.98809	
	527	1	 1 	41.03485		58.95164		67.95503	
	528	1	 1 	40.90578		59.77106		69.24064	
	529	1	 1 	39.59019		60.55144		69.20697	
	530	1	 1 	39.26847		61.05143		70.61673	
	531	1	 1 	39.50717		59.91812		71.61649	
	532	1	 1 	39.85058		60.51850		72.98124	
	533	1	 1 	40.79763		59.57142		73.72084	
	534	1	 1 	41.69298		58.86271		72.70251	
	535	1	 1 	42.99145		58.43511		73.38956	
	536	1	 1 	43.37581		57.03511		72.90669	
	537	1	 1 	44.90024		56.90474		72.91178	
	538	1	 1 	45.49784		58.04920		73.73275	
	539	1	 1 	47.02386		57.98704		73.64160	
	540	1	 1 	47.48038		56.54394		73.86513	
	541	1	 1 	49.00960		56.49586		73.85830	
	542	1	 1 	49.54705		57.75523		73.17564	
	543	1	 1 	51.00491		57.52329		72.77344	
	544	1	 1 	51.37064		58.48425		71.64044	
	545	1	 1 	50.13038		58.74159		70.78229	
	546	1	 1 	49.35535		57.43277		70.61733	
	547	1	 1 	50.11490		56.51926		69.65324	
	548	1	 1 	49.12065		55.87774		68.68328	
	549	1	 1 	47.97282		56.85545		68.42350	
	550	1	 1 	47.75462		56.98176		66.91442	
	551	1	 1 	49.02585		57.53764		66.26955	
	552	1	 1 	49.23664		56.86070		64.91373	
	553	1	 1 	48.05263		55.93512		64.62682	
	554	1	 1 	46.94417		56.73761		63.94255	
	555	1	 1 	46.14715		55.80856		63.02467	
	556	1	 1 	46.93043		55.59304		61.72816	
	557	1	 1 	45.94508		55.37005		60.57913	
	558	1	 1 	45.68446		53.87010		60.42708	
	559	1	 1 	44.32865		53.53184		61.05020	
	560	1	 1 	44.39903		53.76716		62.56035	
	561	1	 1 	45.35372		52.74601		63.18221	
	562	1	 1 	46.55424		52.55278		62.25360	
	563	1	 1 	46.58015		53.68634		61.22634	
	564	1	 1 	47.60497		54.73489		61.66360	
	565	1	 1 	46.87221		55.91137		62.31158	
	566	1	 1 	45.46947		56.01989		61.71039	
	567	1	 1 	45.36995		55.08879		60.50041	
	568	1	 1 	44.03740		55.33269		59.78926	
	569	1	 1 	42.93409		55.49815		60.83628	
	570	1	 1 	42.64299		54.13909		61.47590	
	571	1	 1 	41.61997		53.39114		60.61863	
	572	1	 1 	40.23161		53.98577		60.86312	
	573	1	 1 	39.59475		53.29134		62.06856	
	574	1	 1 	39.81774		51.78214		61.95238	
	575	1	 1 	40.24870		51.44831		60.52279	
	576	1	 1 	41.67219		51.96142		60.29629	
	577	1	 1 	41.90435		53.19581		61.16995	
	578	1	 1 	40.81607		53.26130		62.24338	
	579	1	 1 	39.73880		54.25501		61.80416	
	580	1	 1 	39.56035		55.31405		62.89388	
	581	1	 1 	40.81740		56.18393		62.95726	
	582	1	 1 	41.33392		56.42158		61.53682	
	583	1	 1 	40.39104		57.38734		60.81628	
	584	1	 1 	41.18053		58.16324		59.76007	
	585	1	 1 	40.23546		59.12141		59.03231	
	586	1	 1 	38.97176		59.31314		59.87326	
	587	1	 1 	37.84088		59.81137		58.97117	
	588	1	 1 	36.55758		59.05059		59.31063	
	589	1	 1 	36.48891		57.78029		58.46061	
	590	1	 1 	35.02566		57.36221		58.30248	
	591	1	 1 	34.96758		55.98248		57.64379	
	592	1	 1 	35.96575		55.93846		56.48508	
	593	1	 1 	36.14335		54.48789		56.03211	
	594	1	 1 	37.55908		54.02425		56.38090	
	595	1	 1 	37.49632		52.60186		56.94104	
	596	1	 1 	36.72849		51.71161		55.96186	
	597	1	 1 	37.72725		50.96319		55.07685	
	598	1	 1 	39.12467		51.54680		55.29484	
	599	1	 1 	39.48177		51.44975		56.77941	
	600	1	 1 	40.68702		52.34818		57.06420	
	601	1	 1 	41.53624		51.71210		58.16654	
	602	1	 1 	42.99740		51.67495		57.71431	
	603	1	 1 	43.04676		51.54744		56.19043	
	604	1	 1 	41.69334		51.96149		55.60930	
	605	1	 1 	41.02061		50.73704		54.98555	
	606	1	 1 	40.02243		51.20117		53.92295	
	607	1	 1 	38.75957		50.34214		54.01317	
	608	1	 1 	38.66436		49.45955		52.76703	
	609	1	 1 	40.02053		48.79627		52.51850	
	610	1	 1 	41.00458		49.84735		52.00104	
	611	1	 1 	40.65957		51.20359		52.61950	
	612	1	 1 	41.09584		52.31542		51.66324	
	613	1	 1 	42.62431		52.36028		51.61170	
	614	1	 1 	43.15068		50.99331		51.16984	
	615	1	 1 	43.97246		50.38199		52.30644	
	616	1	 1 	44.54083		51.50658		53.17428	
	617	1	 1 	45.80779		52.05580		52.51545	
	618	1	 1 	46.20209		53.36485		53.20232	
	619	1	 1 	45.55441		54.53499		52.45924	
	620	1	 1 	44.05969		54.25517		52.29061	
	621	1	 1 	43.26193		55.38732		52.94077	
	622	1	 1 	41.81662		55.33196		52.44187	
	623	1	 1 	41.36202		53.87215		52.38547	
	624	1	 1 	40.37776		53.60983		53.52711	
	625	1	 1 	39.91880		52.15151		53.46728	
	626	1	 1 	38.71369		52.04395		52.53078	
	627	1	 1 	38.42778		53.41859		51.92289	
	628	1	 1 	38.86824		54.50312		52.90813	
	629	1	 1 	40.24036		54.13570		53.47662	
	630	1	 1 	40.35628		54.68561		54.89966	
	631	1	 1 	39.99348		56.17196		54.89311	
	632	1	 1 	38.48661		56.32047		55.11262	
	633	1	 1 	38.22873		57.52976		56.01374	
	634	1	 1 	38.25691		58.80206		55.16442	
	635	1	 1 	38.23043		60.02139		56.08823	
	636	1	 1 	37.89590		61.26650		55.26441	
	637	1	 1 	36.48374		61.12423		54.69304	
	638	1	 1 	35.64034		62.32030		55.13912	
	639	1	 1 	34.62991		62.65780		54.04093	
	640	1	 1 	35.38482		63.06620		52.77436	
	641	1	 1 	34.71885		62.41254		51.56187	
	642	1	 1 	35.67371		62.48164		50.36841	
	643	1	 1 	35.80229		63.93684		49.91371	
	644	1	 1 	36.70752		63.99830		48.68177	
	645	1	 1 	36.88700		62.58596		48.12142	
	646	1	 1 	35.72482		61.70919		48.59208	
	647	1	 1 	35.94690		60.27738		48.10064	
	648	1	 1 	35.21906		60.08678		46.76842	
	649	1	 1 	33.75863		59.72288		47.04339	
	650	1	 1 	33.27039		60.50164		48.26652	
	651	1	 1 	31.97011		61.22609		47.91248	
	652	1	 1 	31.63481		62.22413		49.02261	
	653	1	 1 	32.25456		63.58048		48.68041	
	654	1	 1 	32.01094		63.88317		47.20057	
	655	1	 1 	31.27218		62.70450		46.56348	
	656	1	 1 	32.29124		61.76997		45.90845	
	657	1	 1 	33.70008		62.31262		46.15664	
	658	1	 1 	33.59755		63.67927		46.83683	
	659	1	 1 	32.48734		63.63300		47.88859	
	660	1	 1 	32.46175		62.24359		48.52874	
	661	1	 1 	32.36245		62.39412		50.04807	
	662	1	 1 	33.46201		63.34253		50.53013	
	663	1	 1 	32.99067		64.05010		51.80216	
	664	1	 1 	32.19970		65.30133		51.41525	
	665	1	 1 	32.91244		66.00674		50.25969	
	666	1	 1 	31.93303		66.96342		49.57673	
	667	1	 1 	30.52414		66.70589		50.11487	
	668	1	 1 	30.03994		65.34222		49.61800	
	669	1	 1 	29.47785		64.54950		50.79976	
	670	1	 1 	27.94941		64.60413		50.75759	
	671	1	 1 	27.47959		64.37129		49.32025	
	672	1	 1 	27.99163		63.01178		48.84020	
	673	1	 1 	28.07546		63.01936		47.31252	
	674	1	 1 	27.08657		64.04886		46.76196	
	675	1	 1 	26.86978		63.78691		45.27022	
	676	1	 1 	25.96956		62.56115		45.10281	
	677	1	 1 	24.78264		62.67704		46.06129	
	678	1	 1 	25.23688		62.28913		47.46987	
	679	1	 1 	24.10304		61.54026		48.17308	
	680	1	 1 	22.97843		61.27772		47.16947	
	681	1	 1 	21.87221		60.47412		47.85605	
	682	1	 1 	21.89212		60.77508		49.35603	
	683	1	 1 	20.50547		60.49865		49.94056	
	684	1	 1 	19.46232		60.60412		48.82628	